# Force and moment coefficients
# dragDir     : (9.708389e-01 2.397330e-01 0.000000e+00)
# sideDir     : (0.000000e+00 0.000000e+00 -1.000000e+00)
# liftDir     : (-2.397330e-01 9.708389e-01 0.000000e+00)
# rollAxis    : (9.708389e-01 2.397330e-01 0.000000e+00)
# pitchAxis   : (0.000000e+00 0.000000e+00 -1.000000e+00)
# yawAxis     : (-2.397330e-01 9.708389e-01 0.000000e+00)
# magUInf     : 6.180220e+02
# lRef        : 1.000000e+00
# Aref        : 1.000000e+00
# CofR        : (0.000000e+00 0.000000e+00 0.000000e+00)
#
# Time        	Cd            	Cd(f)         	Cd(r)         	Cl            	Cl(f)         	Cl(r)         	CmPitch       	CmRoll        	CmYaw         	Cs            	Cs(f)         	Cs(r)         
1e-05         	2.831385e-01	-1.398862e-01	4.230247e-01	5.629109e-01	-5.806482e-02	6.209757e-01	-3.395203e-01	-2.814554e-01	1.415693e-01	-6.180229e-22	1.415693e-01	-1.415693e-01
2e-05         	2.755907e-01	-1.468403e-01	4.224310e-01	5.692713e-01	-5.872672e-02	6.279980e-01	-3.433624e-01	-2.846357e-01	1.377953e-01	-6.122880e-22	1.377953e-01	-1.377953e-01
3e-05         	2.685749e-01	-1.499235e-01	4.184985e-01	5.684220e-01	-5.841382e-02	6.268358e-01	-3.426248e-01	-2.842110e-01	1.342875e-01	-6.139647e-22	1.342875e-01	-1.342875e-01
4e-05         	2.637232e-01	-1.526935e-01	4.164167e-01	5.691102e-01	-5.848465e-02	6.275949e-01	-3.430398e-01	-2.845551e-01	1.318616e-01	-5.992019e-22	1.318616e-01	-1.318616e-01
5e-05         	2.615079e-01	-1.539529e-01	4.154607e-01	5.694136e-01	-5.865965e-02	6.280733e-01	-3.433665e-01	-2.847068e-01	1.307539e-01	-5.775594e-22	1.307539e-01	-1.307539e-01
6e-05         	2.584786e-01	-1.556454e-01	4.141241e-01	5.697695e-01	-5.898504e-02	6.287545e-01	-3.438698e-01	-2.848848e-01	1.292393e-01	-5.511972e-22	1.292393e-01	-1.292393e-01
7e-05         	2.567869e-01	-1.564658e-01	4.132527e-01	5.697185e-01	-5.928025e-02	6.289987e-01	-3.441395e-01	-2.848592e-01	1.283934e-01	-5.224895e-22	1.283934e-01	-1.283934e-01
8e-05         	2.560458e-01	-1.566356e-01	4.126815e-01	5.693171e-01	-5.947113e-02	6.287882e-01	-3.441297e-01	-2.846585e-01	1.280229e-01	-4.977598e-22	1.280229e-01	-1.280229e-01
9e-05         	2.553124e-01	-1.566902e-01	4.120027e-01	5.686929e-01	-5.961470e-02	6.283076e-01	-3.439611e-01	-2.843464e-01	1.276562e-01	-4.772593e-22	1.276562e-01	-1.276562e-01
0.0001        	2.523359e-01	-1.577873e-01	4.101232e-01	5.679105e-01	-5.974284e-02	6.276534e-01	-3.436981e-01	-2.839553e-01	1.261680e-01	-4.671862e-22	1.261680e-01	-1.261680e-01
0.00011       	2.530392e-01	-1.571151e-01	4.101543e-01	5.672693e-01	-5.975388e-02	6.270232e-01	-3.433885e-01	-2.836347e-01	1.265196e-01	-4.605757e-22	1.265196e-01	-1.265196e-01
0.00012       	2.503959e-01	-1.580526e-01	4.084484e-01	5.665010e-01	-5.979328e-02	6.262943e-01	-3.430438e-01	-2.832505e-01	1.251979e-01	-4.549118e-22	1.251979e-01	-1.251979e-01
0.00013       	2.514328e-01	-1.571635e-01	4.085963e-01	5.657597e-01	-5.979847e-02	6.255582e-01	-3.426783e-01	-2.828799e-01	1.257164e-01	-4.460790e-22	1.257164e-01	-1.257164e-01
0.00014       	2.490441e-01	-1.580071e-01	4.070513e-01	5.650584e-01	-5.979733e-02	6.248557e-01	-3.423265e-01	-2.825292e-01	1.245221e-01	-4.394279e-22	1.245221e-01	-1.245221e-01
0.00015       	2.493153e-01	-1.575782e-01	4.068935e-01	5.644717e-01	-5.976221e-02	6.242339e-01	-3.419980e-01	-2.822358e-01	1.246576e-01	-4.352828e-22	1.246576e-01	-1.246576e-01
0.00016       	2.491320e-01	-1.573151e-01	4.064471e-01	5.637622e-01	-5.979035e-02	6.235526e-01	-3.416715e-01	-2.818811e-01	1.245660e-01	-4.303214e-22	1.245660e-01	-1.245660e-01
0.00017       	2.473143e-01	-1.579896e-01	4.053040e-01	5.632936e-01	-5.971497e-02	6.230086e-01	-3.413618e-01	-2.816468e-01	1.236572e-01	-4.269045e-22	1.236572e-01	-1.236572e-01
0.00018       	2.473871e-01	-1.576471e-01	4.050342e-01	5.626813e-01	-5.972298e-02	6.224043e-01	-3.410636e-01	-2.813406e-01	1.236935e-01	-4.170764e-22	1.236935e-01	-1.236935e-01
0.00019       	2.480487e-01	-1.570460e-01	4.050946e-01	5.621406e-01	-5.971296e-02	6.218536e-01	-3.407833e-01	-2.810703e-01	1.240243e-01	-4.088367e-22	1.240243e-01	-1.240243e-01
0.0002        	2.468688e-01	-1.574174e-01	4.042862e-01	5.617036e-01	-5.965419e-02	6.213577e-01	-3.405060e-01	-2.808518e-01	1.234344e-01	-4.117394e-22	1.234344e-01	-1.234344e-01
0.00021       	2.457361e-01	-1.577307e-01	4.034668e-01	5.611975e-01	-5.964582e-02	6.208433e-01	-3.402445e-01	-2.805987e-01	1.228681e-01	-4.060600e-22	1.228681e-01	-1.228681e-01
0.00022       	2.459274e-01	-1.573843e-01	4.033117e-01	5.606960e-01	-5.964307e-02	6.203391e-01	-3.399911e-01	-2.803480e-01	1.229637e-01	-4.088942e-22	1.229637e-01	-1.229637e-01
0.00023       	2.467798e-01	-1.567453e-01	4.035251e-01	5.602703e-01	-5.961292e-02	6.198832e-01	-3.397481e-01	-2.801352e-01	1.233899e-01	-4.182505e-22	1.233899e-01	-1.233899e-01
0.00024       	2.460591e-01	-1.569019e-01	4.029609e-01	5.598628e-01	-5.957806e-02	6.194409e-01	-3.395095e-01	-2.799314e-01	1.230295e-01	-4.234727e-22	1.230295e-01	-1.230295e-01
0.00025       	2.452654e-01	-1.570675e-01	4.023328e-01	5.594003e-01	-5.957445e-02	6.189747e-01	-3.392746e-01	-2.797001e-01	1.226327e-01	-4.293884e-22	1.226327e-01	-1.226327e-01
0.00026       	2.446463e-01	-1.571664e-01	4.018126e-01	5.589790e-01	-5.955616e-02	6.185351e-01	-3.390456e-01	-2.794895e-01	1.223231e-01	-4.354876e-22	1.223231e-01	-1.223231e-01
0.00027       	2.446412e-01	-1.570031e-01	4.016443e-01	5.586474e-01	-5.950196e-02	6.181493e-01	-3.388256e-01	-2.793237e-01	1.223206e-01	-4.372499e-22	1.223206e-01	-1.223206e-01
0.00028       	2.457355e-01	-1.562625e-01	4.019981e-01	5.582606e-01	-5.948406e-02	6.177447e-01	-3.386144e-01	-2.791303e-01	1.228678e-01	-4.358958e-22	1.228678e-01	-1.228678e-01
0.00029       	2.454714e-01	-1.561962e-01	4.016676e-01	5.578638e-01	-5.946252e-02	6.173263e-01	-3.383944e-01	-2.789319e-01	1.227357e-01	-4.397602e-22	1.227357e-01	-1.227357e-01
0.0003        	2.448743e-01	-1.562870e-01	4.011614e-01	5.574484e-01	-5.945022e-02	6.168987e-01	-3.381744e-01	-2.787242e-01	1.224372e-01	-4.436036e-22	1.224372e-01	-1.224372e-01
0.00031       	2.444994e-01	-1.563073e-01	4.008068e-01	5.571141e-01	-5.939480e-02	6.165089e-01	-3.379518e-01	-2.785570e-01	1.222497e-01	-4.503794e-22	1.222497e-01	-1.222497e-01
0.00032       	2.440332e-01	-1.564050e-01	4.004381e-01	5.568431e-01	-5.931651e-02	6.161596e-01	-3.377381e-01	-2.784215e-01	1.220166e-01	-4.578110e-22	1.220166e-01	-1.220166e-01
0.00033       	2.437093e-01	-1.564104e-01	4.001197e-01	5.565301e-01	-5.926073e-02	6.157909e-01	-3.375258e-01	-2.782651e-01	1.218546e-01	-4.646888e-22	1.218546e-01	-1.218546e-01
0.00034       	2.443329e-01	-1.559140e-01	4.002469e-01	5.561609e-01	-5.924052e-02	6.154015e-01	-3.373210e-01	-2.780805e-01	1.221664e-01	-4.729553e-22	1.221664e-01	-1.221664e-01
0.00035       	2.450879e-01	-1.553505e-01	4.004384e-01	5.557889e-01	-5.923314e-02	6.150221e-01	-3.371276e-01	-2.778945e-01	1.225439e-01	-4.802083e-22	1.225439e-01	-1.225439e-01
0.00036       	2.448351e-01	-1.553249e-01	4.001600e-01	5.554850e-01	-5.919771e-02	6.146827e-01	-3.369402e-01	-2.777425e-01	1.224175e-01	-4.838531e-22	1.224175e-01	-1.224175e-01
0.00037       	2.444358e-01	-1.554011e-01	3.998370e-01	5.552381e-01	-5.912145e-02	6.143596e-01	-3.367405e-01	-2.776191e-01	1.222179e-01	-4.872681e-22	1.222179e-01	-1.222179e-01
0.00038       	2.442206e-01	-1.553842e-01	3.996048e-01	5.549890e-01	-5.905343e-02	6.140425e-01	-3.365479e-01	-2.774945e-01	1.221103e-01	-4.912912e-22	1.221103e-01	-1.221103e-01
0.00039       	2.440350e-01	-1.553325e-01	3.993675e-01	5.547001e-01	-5.898534e-02	6.136854e-01	-3.363354e-01	-2.773500e-01	1.220175e-01	-4.966142e-22	1.220175e-01	-1.220175e-01
0.0004        	2.437753e-01	-1.553031e-01	3.990784e-01	5.543815e-01	-5.891467e-02	6.132962e-01	-3.361054e-01	-2.771908e-01	1.218876e-01	-5.009154e-22	1.218876e-01	-1.218876e-01
0.00041       	2.434727e-01	-1.553103e-01	3.987829e-01	5.540932e-01	-5.884023e-02	6.129334e-01	-3.358868e-01	-2.770466e-01	1.217363e-01	-5.068088e-22	1.217363e-01	-1.217363e-01
0.00042       	2.433937e-01	-1.552112e-01	3.986049e-01	5.538161e-01	-5.877329e-02	6.125893e-01	-3.356813e-01	-2.769080e-01	1.216969e-01	-5.122228e-22	1.216969e-01	-1.216969e-01
0.00043       	2.439014e-01	-1.548168e-01	3.987181e-01	5.535349e-01	-5.872115e-02	6.122560e-01	-3.354886e-01	-2.767674e-01	1.219507e-01	-5.135929e-22	1.219507e-01	-1.219507e-01
0.00044       	2.446005e-01	-1.543277e-01	3.989282e-01	5.532559e-01	-5.865899e-02	6.119149e-01	-3.352869e-01	-2.766279e-01	1.223002e-01	-5.136745e-22	1.223002e-01	-1.223002e-01
0.00045       	2.444833e-01	-1.542636e-01	3.987469e-01	5.530105e-01	-5.857738e-02	6.115879e-01	-3.350826e-01	-2.765052e-01	1.222416e-01	-5.157434e-22	1.222416e-01	-1.222416e-01
0.00046       	2.441928e-01	-1.542724e-01	3.984652e-01	5.527376e-01	-5.850264e-02	6.112403e-01	-3.348715e-01	-2.763688e-01	1.220964e-01	-5.202604e-22	1.220964e-01	-1.220964e-01
0.00047       	2.439851e-01	-1.542331e-01	3.982182e-01	5.524513e-01	-5.842153e-02	6.108728e-01	-3.346472e-01	-2.762256e-01	1.219926e-01	-5.277652e-22	1.219926e-01	-1.219926e-01
0.00048       	2.438602e-01	-1.541460e-01	3.980062e-01	5.521522e-01	-5.831065e-02	6.104629e-01	-3.343868e-01	-2.760761e-01	1.219301e-01	-5.362511e-22	1.219301e-01	-1.219301e-01
0.00049       	2.437662e-01	-1.540460e-01	3.978122e-01	5.518582e-01	-5.819031e-02	6.100485e-01	-3.341194e-01	-2.759291e-01	1.218831e-01	-5.448277e-22	1.218831e-01	-1.218831e-01
0.0005        	2.437157e-01	-1.539437e-01	3.976594e-01	5.516031e-01	-5.805851e-02	6.096616e-01	-3.338600e-01	-2.758015e-01	1.218579e-01	-5.544661e-22	1.218579e-01	-1.218579e-01
0.00051       	2.436439e-01	-1.538521e-01	3.974960e-01	5.513481e-01	-5.792812e-02	6.092762e-01	-3.336021e-01	-2.756740e-01	1.218219e-01	-5.630864e-22	1.218219e-01	-1.218219e-01
0.00052       	2.434582e-01	-1.538345e-01	3.972926e-01	5.511271e-01	-5.782007e-02	6.089472e-01	-3.333836e-01	-2.755635e-01	1.217291e-01	-5.686911e-22	1.217291e-01	-1.217291e-01
0.00053       	2.431938e-01	-1.538318e-01	3.970256e-01	5.508575e-01	-5.765646e-02	6.085139e-01	-3.330852e-01	-2.754287e-01	1.215969e-01	-5.736010e-22	1.215969e-01	-1.215969e-01
0.00054       	2.431076e-01	-1.537704e-01	3.968781e-01	5.506485e-01	-5.752972e-02	6.081782e-01	-3.328539e-01	-2.753242e-01	1.215538e-01	-5.771404e-22	1.215538e-01	-1.215538e-01
0.00055       	2.432424e-01	-1.535869e-01	3.968292e-01	5.504161e-01	-5.740521e-02	6.078213e-01	-3.326133e-01	-2.752081e-01	1.216212e-01	-5.811226e-22	1.216212e-01	-1.216212e-01
0.00056       	2.437940e-01	-1.531886e-01	3.969826e-01	5.501712e-01	-5.727940e-02	6.074506e-01	-3.323650e-01	-2.750856e-01	1.218970e-01	-5.835049e-22	1.218970e-01	-1.218970e-01
0.00057       	2.441566e-01	-1.528996e-01	3.970561e-01	5.499557e-01	-5.715155e-02	6.071072e-01	-3.321294e-01	-2.749778e-01	1.220783e-01	-5.877360e-22	1.220783e-01	-1.220783e-01
0.00058       	2.440820e-01	-1.528838e-01	3.969658e-01	5.498497e-01	-5.709461e-02	6.069443e-01	-3.320194e-01	-2.749248e-01	1.220410e-01	-5.930625e-22	1.220410e-01	-1.220410e-01
0.00059       	2.438741e-01	-1.528696e-01	3.967438e-01	5.496134e-01	-5.697003e-02	6.065834e-01	-3.317767e-01	-2.748067e-01	1.219371e-01	-6.000820e-22	1.219371e-01	-1.219371e-01
0.0006        	2.437617e-01	-1.528154e-01	3.965770e-01	5.493924e-01	-5.686311e-02	6.062555e-01	-3.315593e-01	-2.746962e-01	1.218808e-01	-6.100101e-22	1.218808e-01	-1.218808e-01
0.00061       	2.437385e-01	-1.527220e-01	3.964605e-01	5.491826e-01	-5.677200e-02	6.059546e-01	-3.313633e-01	-2.745913e-01	1.218692e-01	-6.208078e-22	1.218692e-01	-1.218692e-01
0.00062       	2.437637e-01	-1.526212e-01	3.963849e-01	5.490062e-01	-5.670454e-02	6.057107e-01	-3.312076e-01	-2.745031e-01	1.218819e-01	-6.335162e-22	1.218819e-01	-1.218819e-01
0.00063       	2.438396e-01	-1.525403e-01	3.963799e-01	5.489202e-01	-5.666265e-02	6.055829e-01	-3.311228e-01	-2.744601e-01	1.219198e-01	-6.478830e-22	1.219198e-01	-1.219198e-01
0.00064       	2.439890e-01	-1.524817e-01	3.964706e-01	5.489523e-01	-5.669882e-02	6.056511e-01	-3.311750e-01	-2.744762e-01	1.219945e-01	-6.622729e-22	1.219945e-01	-1.219945e-01
0.00065       	2.441803e-01	-1.524435e-01	3.966238e-01	5.490673e-01	-5.678298e-02	6.058502e-01	-3.313166e-01	-2.745336e-01	1.220902e-01	-6.745101e-22	1.220902e-01	-1.220902e-01
0.00066       	2.443300e-01	-1.524163e-01	3.967463e-01	5.491627e-01	-5.681620e-02	6.059789e-01	-3.313975e-01	-2.745813e-01	1.221650e-01	-6.836738e-22	1.221650e-01	-1.221650e-01
0.00067       	2.443800e-01	-1.523714e-01	3.967514e-01	5.491228e-01	-5.674493e-02	6.058677e-01	-3.313063e-01	-2.745614e-01	1.221900e-01	-6.932734e-22	1.221900e-01	-1.221900e-01
0.00068       	2.443664e-01	-1.523490e-01	3.967154e-01	5.490645e-01	-5.666161e-02	6.057261e-01	-3.311938e-01	-2.745322e-01	1.221832e-01	-7.060526e-22	1.221832e-01	-1.221832e-01
0.00069       	2.442780e-01	-1.523996e-01	3.966776e-01	5.490772e-01	-5.662944e-02	6.057066e-01	-3.311680e-01	-2.745386e-01	1.221390e-01	-7.185229e-22	1.221390e-01	-1.221390e-01
0.0007        	2.441715e-01	-1.524678e-01	3.966393e-01	5.491070e-01	-5.661664e-02	6.057237e-01	-3.311702e-01	-2.745535e-01	1.220858e-01	-7.309532e-22	1.220858e-01	-1.220858e-01
0.00071       	2.441567e-01	-1.524817e-01	3.966384e-01	5.491201e-01	-5.660238e-02	6.057225e-01	-3.311624e-01	-2.745601e-01	1.220783e-01	-7.425787e-22	1.220783e-01	-1.220783e-01
0.00072       	2.442556e-01	-1.524244e-01	3.966800e-01	5.491045e-01	-5.659144e-02	6.056959e-01	-3.311437e-01	-2.745522e-01	1.221278e-01	-7.547235e-22	1.221278e-01	-1.221278e-01
0.00073       	2.444680e-01	-1.522947e-01	3.967628e-01	5.490575e-01	-5.658216e-02	6.056396e-01	-3.311109e-01	-2.745287e-01	1.222340e-01	-7.682201e-22	1.222340e-01	-1.222340e-01
0.00074       	2.448817e-01	-1.520590e-01	3.969407e-01	5.489997e-01	-5.657624e-02	6.055759e-01	-3.310761e-01	-2.744998e-01	1.224409e-01	-7.800851e-22	1.224409e-01	-1.224409e-01
0.00075       	2.453028e-01	-1.518337e-01	3.971366e-01	5.489703e-01	-5.654908e-02	6.055194e-01	-3.310342e-01	-2.744852e-01	1.226514e-01	-7.898872e-22	1.226514e-01	-1.226514e-01
0.00076       	2.455069e-01	-1.517327e-01	3.972396e-01	5.489722e-01	-5.648953e-02	6.054618e-01	-3.309756e-01	-2.744861e-01	1.227534e-01	-7.948007e-22	1.227534e-01	-1.227534e-01
0.00077       	2.455486e-01	-1.517222e-01	3.972708e-01	5.489930e-01	-5.640649e-02	6.053995e-01	-3.309030e-01	-2.744965e-01	1.227743e-01	-7.958353e-22	1.227743e-01	-1.227743e-01
0.00078       	2.455253e-01	-1.517475e-01	3.972728e-01	5.490203e-01	-5.630596e-02	6.053262e-01	-3.308161e-01	-2.745101e-01	1.227627e-01	-7.976907e-22	1.227627e-01	-1.227627e-01
0.00079       	2.455252e-01	-1.517483e-01	3.972735e-01	5.490217e-01	-5.620124e-02	6.052230e-01	-3.307121e-01	-2.745109e-01	1.227626e-01	-8.000992e-22	1.227626e-01	-1.227626e-01
0.0008        	2.455812e-01	-1.516889e-01	3.972701e-01	5.489591e-01	-5.611254e-02	6.050716e-01	-3.305921e-01	-2.744795e-01	1.227906e-01	-8.033044e-22	1.227906e-01	-1.227906e-01
0.00081       	2.456620e-01	-1.515934e-01	3.972554e-01	5.488488e-01	-5.603490e-02	6.048837e-01	-3.304593e-01	-2.744244e-01	1.228310e-01	-8.068530e-22	1.228310e-01	-1.228310e-01
0.00082       	2.457599e-01	-1.514828e-01	3.972426e-01	5.487254e-01	-5.595331e-02	6.046787e-01	-3.303160e-01	-2.743627e-01	1.228799e-01	-8.087900e-22	1.228799e-01	-1.228799e-01
0.00083       	2.458570e-01	-1.513742e-01	3.972313e-01	5.486055e-01	-5.586457e-02	6.044701e-01	-3.301673e-01	-2.743028e-01	1.229285e-01	-8.086643e-22	1.229285e-01	-1.229285e-01
0.00084       	2.459712e-01	-1.512674e-01	3.972386e-01	5.485060e-01	-5.576490e-02	6.042709e-01	-3.300179e-01	-2.742530e-01	1.229856e-01	-8.053685e-22	1.229856e-01	-1.229856e-01
0.00085       	2.461112e-01	-1.511706e-01	3.972818e-01	5.484523e-01	-5.564428e-02	6.040966e-01	-3.298705e-01	-2.742262e-01	1.230556e-01	-8.022421e-22	1.230556e-01	-1.230556e-01
0.00086       	2.462370e-01	-1.511017e-01	3.973386e-01	5.484403e-01	-5.550768e-02	6.039479e-01	-3.297278e-01	-2.742201e-01	1.231185e-01	-8.026848e-22	1.231185e-01	-1.231185e-01
0.00087       	2.463219e-01	-1.510505e-01	3.973724e-01	5.484229e-01	-5.537208e-02	6.037950e-01	-3.295835e-01	-2.742115e-01	1.231609e-01	-8.028407e-22	1.231609e-01	-1.231609e-01
0.00088       	2.463904e-01	-1.509950e-01	3.973854e-01	5.483804e-01	-5.524605e-02	6.036265e-01	-3.294363e-01	-2.741902e-01	1.231952e-01	-8.014549e-22	1.231952e-01	-1.231952e-01
0.00089       	2.464597e-01	-1.509367e-01	3.973965e-01	5.483332e-01	-5.512255e-02	6.034558e-01	-3.292892e-01	-2.741666e-01	1.232299e-01	-8.016010e-22	1.232299e-01	-1.232299e-01
0.0009        	2.465245e-01	-1.508778e-01	3.974023e-01	5.482801e-01	-5.499838e-02	6.032785e-01	-3.291384e-01	-2.741401e-01	1.232622e-01	-8.005072e-22	1.232622e-01	-1.232622e-01
0.00091       	2.465740e-01	-1.508222e-01	3.973961e-01	5.482183e-01	-5.487625e-02	6.030945e-01	-3.289854e-01	-2.741092e-01	1.232870e-01	-7.995171e-22	1.232870e-01	-1.232870e-01
0.00092       	2.466232e-01	-1.507675e-01	3.973906e-01	5.481581e-01	-5.475363e-02	6.029117e-01	-3.288327e-01	-2.740790e-01	1.233116e-01	-7.979601e-22	1.233116e-01	-1.233116e-01
0.00093       	2.466911e-01	-1.507045e-01	3.973955e-01	5.481000e-01	-5.462525e-02	6.027252e-01	-3.286752e-01	-2.740500e-01	1.233455e-01	-7.967623e-22	1.233455e-01	-1.233455e-01
0.00094       	2.467511e-01	-1.506446e-01	3.973957e-01	5.480403e-01	-5.449541e-02	6.025357e-01	-3.285156e-01	-2.740202e-01	1.233755e-01	-7.968938e-22	1.233755e-01	-1.233755e-01
0.00095       	2.467598e-01	-1.506160e-01	3.973759e-01	5.479919e-01	-5.436191e-02	6.023538e-01	-3.283578e-01	-2.739959e-01	1.233799e-01	-7.951944e-22	1.233799e-01	-1.233799e-01
0.00096       	2.467049e-01	-1.506225e-01	3.973274e-01	5.479498e-01	-5.422252e-02	6.021724e-01	-3.281974e-01	-2.739749e-01	1.233525e-01	-7.930589e-22	1.233525e-01	-1.233525e-01
0.00097       	2.466559e-01	-1.506297e-01	3.972856e-01	5.479153e-01	-5.408049e-02	6.019957e-01	-3.280381e-01	-2.739576e-01	1.233280e-01	-7.910024e-22	1.233280e-01	-1.233280e-01
0.00098       	2.466688e-01	-1.506081e-01	3.972768e-01	5.478849e-01	-5.393792e-02	6.018228e-01	-3.278804e-01	-2.739424e-01	1.233344e-01	-7.827112e-22	1.233344e-01	-1.233344e-01
0.00099       	2.467334e-01	-1.505623e-01	3.972957e-01	5.478580e-01	-5.379330e-02	6.016513e-01	-3.277223e-01	-2.739290e-01	1.233667e-01	-7.771874e-22	1.233667e-01	-1.233667e-01
0.001         	2.468423e-01	-1.504903e-01	3.973326e-01	5.478229e-01	-5.365388e-02	6.014768e-01	-3.275654e-01	-2.739115e-01	1.234212e-01	-7.756125e-22	1.234212e-01	-1.234212e-01
0.00101       	2.470063e-01	-1.503725e-01	3.973788e-01	5.477514e-01	-5.353177e-02	6.012831e-01	-3.274075e-01	-2.738757e-01	1.235031e-01	-7.752121e-22	1.235031e-01	-1.235031e-01
0.00102       	2.472717e-01	-1.501898e-01	3.974615e-01	5.476512e-01	-5.342526e-02	6.010765e-01	-3.272509e-01	-2.738256e-01	1.236359e-01	-7.729811e-22	1.236359e-01	-1.236359e-01
0.00103       	2.476109e-01	-1.499678e-01	3.975788e-01	5.475466e-01	-5.332553e-02	6.008721e-01	-3.270988e-01	-2.737733e-01	1.238055e-01	-7.701704e-22	1.238055e-01	-1.238055e-01
0.00104       	2.478981e-01	-1.497851e-01	3.976832e-01	5.474683e-01	-5.321968e-02	6.006880e-01	-3.269538e-01	-2.737342e-01	1.239490e-01	-7.656446e-22	1.239490e-01	-1.239490e-01
0.00105       	2.481028e-01	-1.496688e-01	3.977717e-01	5.474405e-01	-5.309810e-02	6.005386e-01	-3.268183e-01	-2.737202e-01	1.240514e-01	-7.608849e-22	1.240514e-01	-1.240514e-01
0.00106       	2.481635e-01	-1.496529e-01	3.978165e-01	5.474694e-01	-5.296168e-02	6.004311e-01	-3.266964e-01	-2.737347e-01	1.240818e-01	-7.551947e-22	1.240818e-01	-1.240818e-01
0.00107       	2.482132e-01	-1.496532e-01	3.978664e-01	5.475196e-01	-5.282457e-02	6.003442e-01	-3.265844e-01	-2.737598e-01	1.241066e-01	-7.469212e-22	1.241066e-01	-1.241066e-01
0.00108       	2.483210e-01	-1.496280e-01	3.979490e-01	5.475769e-01	-5.269384e-02	6.002708e-01	-3.264823e-01	-2.737885e-01	1.241605e-01	-7.390223e-22	1.241605e-01	-1.241605e-01
0.00109       	2.484586e-01	-1.495906e-01	3.980492e-01	5.476398e-01	-5.256824e-02	6.002080e-01	-3.263881e-01	-2.738199e-01	1.242293e-01	-7.353651e-22	1.242293e-01	-1.242293e-01
0.0011        	2.486154e-01	-1.495480e-01	3.981634e-01	5.477114e-01	-5.244775e-02	6.001592e-01	-3.263035e-01	-2.738557e-01	1.243077e-01	-7.311797e-22	1.243077e-01	-1.243077e-01
0.00111       	2.487612e-01	-1.495173e-01	3.982785e-01	5.477959e-01	-5.233329e-02	6.001292e-01	-3.262312e-01	-2.738979e-01	1.243806e-01	-7.266649e-22	1.243806e-01	-1.243806e-01
0.00112       	2.488956e-01	-1.494973e-01	3.983929e-01	5.478902e-01	-5.222451e-02	6.001147e-01	-3.261696e-01	-2.739451e-01	1.244478e-01	-7.232812e-22	1.244478e-01	-1.244478e-01
0.00113       	2.490587e-01	-1.494671e-01	3.985258e-01	5.479928e-01	-5.212677e-02	6.001196e-01	-3.261232e-01	-2.739964e-01	1.245294e-01	-7.197564e-22	1.245294e-01	-1.245294e-01
0.00114       	2.492289e-01	-1.494367e-01	3.986657e-01	5.481024e-01	-5.204384e-02	6.001462e-01	-3.260950e-01	-2.740512e-01	1.246145e-01	-7.169240e-22	1.246145e-01	-1.246145e-01
0.00115       	2.493837e-01	-1.494092e-01	3.987929e-01	5.482021e-01	-5.198169e-02	6.001838e-01	-3.260828e-01	-2.741011e-01	1.246918e-01	-7.154693e-22	1.246918e-01	-1.246918e-01
0.00116       	2.495340e-01	-1.493809e-01	3.989149e-01	5.482958e-01	-5.193712e-02	6.002329e-01	-3.260850e-01	-2.741479e-01	1.247670e-01	-7.132178e-22	1.247670e-01	-1.247670e-01
0.00117       	2.496911e-01	-1.493569e-01	3.990480e-01	5.484049e-01	-5.190062e-02	6.003056e-01	-3.261031e-01	-2.742025e-01	1.248455e-01	-7.080113e-22	1.248455e-01	-1.248455e-01
0.00118       	2.498529e-01	-1.493493e-01	3.992022e-01	5.485515e-01	-5.185751e-02	6.004090e-01	-3.261333e-01	-2.742757e-01	1.249264e-01	-7.012652e-22	1.249264e-01	-1.249264e-01
0.00119       	2.500086e-01	-1.493653e-01	3.993739e-01	5.487392e-01	-5.180863e-02	6.005479e-01	-3.261782e-01	-2.743696e-01	1.250043e-01	-6.978257e-22	1.250043e-01	-1.250043e-01
0.0012        	2.501537e-01	-1.493986e-01	3.995523e-01	5.489509e-01	-5.176320e-02	6.007141e-01	-3.262387e-01	-2.744755e-01	1.250769e-01	-6.920459e-22	1.250769e-01	-1.250769e-01
0.00121       	2.502916e-01	-1.494398e-01	3.997314e-01	5.491711e-01	-5.172686e-02	6.008980e-01	-3.263124e-01	-2.745856e-01	1.251458e-01	-6.888261e-22	1.251458e-01	-1.251458e-01
0.00122       	2.504296e-01	-1.494884e-01	3.999180e-01	5.494064e-01	-5.169333e-02	6.010997e-01	-3.263965e-01	-2.747032e-01	1.252148e-01	-6.844593e-22	1.252148e-01	-1.252148e-01
0.00123       	2.505764e-01	-1.495430e-01	4.001194e-01	5.496623e-01	-5.165727e-02	6.013196e-01	-3.264884e-01	-2.748312e-01	1.252882e-01	-6.827936e-22	1.252882e-01	-1.252882e-01
0.00124       	2.507334e-01	-1.495970e-01	4.003305e-01	5.499275e-01	-5.162018e-02	6.015477e-01	-3.265839e-01	-2.749637e-01	1.253667e-01	-6.776494e-22	1.253667e-01	-1.253667e-01
0.00125       	2.508953e-01	-1.496485e-01	4.005437e-01	5.501922e-01	-5.158591e-02	6.017781e-01	-3.266820e-01	-2.750961e-01	1.254476e-01	-6.735968e-22	1.254476e-01	-1.254476e-01
0.00126       	2.510518e-01	-1.497048e-01	4.007566e-01	5.504613e-01	-5.155670e-02	6.020180e-01	-3.267874e-01	-2.752307e-01	1.255259e-01	-6.693195e-22	1.255259e-01	-1.255259e-01
0.00127       	2.511921e-01	-1.497699e-01	4.009621e-01	5.507320e-01	-5.153550e-02	6.022675e-01	-3.269015e-01	-2.753660e-01	1.255961e-01	-6.589334e-22	1.255961e-01	-1.255961e-01
0.00128       	2.513150e-01	-1.498428e-01	4.011578e-01	5.510006e-01	-5.151773e-02	6.025184e-01	-3.270181e-01	-2.755003e-01	1.256575e-01	-6.542515e-22	1.256575e-01	-1.256575e-01
0.00129       	2.514438e-01	-1.499178e-01	4.013616e-01	5.512794e-01	-5.150393e-02	6.027833e-01	-3.271436e-01	-2.756397e-01	1.257219e-01	-6.517713e-22	1.257219e-01	-1.257219e-01
0.0013        	2.515826e-01	-1.499870e-01	4.015696e-01	5.515566e-01	-5.149319e-02	6.030498e-01	-3.272715e-01	-2.757783e-01	1.257913e-01	-6.491627e-22	1.257913e-01	-1.257913e-01
0.00131       	2.517213e-01	-1.500449e-01	4.017662e-01	5.518111e-01	-5.149135e-02	6.033025e-01	-3.273969e-01	-2.759055e-01	1.258607e-01	-6.417209e-22	1.258607e-01	-1.258607e-01
0.00132       	2.518587e-01	-1.500906e-01	4.019493e-01	5.520399e-01	-5.150140e-02	6.035413e-01	-3.275214e-01	-2.760200e-01	1.259294e-01	-6.336602e-22	1.259294e-01	-1.259294e-01
0.00133       	2.520058e-01	-1.501302e-01	4.021360e-01	5.522661e-01	-5.152151e-02	6.037877e-01	-3.276546e-01	-2.761331e-01	1.260029e-01	-6.220023e-22	1.260029e-01	-1.260029e-01
0.00134       	2.521511e-01	-1.501735e-01	4.023246e-01	5.524981e-01	-5.154097e-02	6.040390e-01	-3.277900e-01	-2.762490e-01	1.260755e-01	-6.114598e-22	1.260755e-01	-1.260755e-01
0.00135       	2.522896e-01	-1.502267e-01	4.025163e-01	5.527430e-01	-5.155544e-02	6.042985e-01	-3.279270e-01	-2.763715e-01	1.261448e-01	-6.037224e-22	1.261448e-01	-1.261448e-01
0.00136       	2.524211e-01	-1.502893e-01	4.027103e-01	5.529996e-01	-5.156392e-02	6.045635e-01	-3.280637e-01	-2.764998e-01	1.262105e-01	-5.972792e-22	1.262105e-01	-1.262105e-01
0.00137       	2.525517e-01	-1.503559e-01	4.029076e-01	5.532635e-01	-5.156854e-02	6.048320e-01	-3.282003e-01	-2.766317e-01	1.262759e-01	-5.913984e-22	1.262759e-01	-1.262759e-01
0.00138       	2.526907e-01	-1.504204e-01	4.031111e-01	5.535315e-01	-5.157119e-02	6.051027e-01	-3.283369e-01	-2.767657e-01	1.263453e-01	-5.903294e-22	1.263453e-01	-1.263453e-01
0.00139       	2.528392e-01	-1.504811e-01	4.033203e-01	5.538014e-01	-5.157192e-02	6.053733e-01	-3.284726e-01	-2.769007e-01	1.264196e-01	-5.902928e-22	1.264196e-01	-1.264196e-01
0.0014        	2.529961e-01	-1.505376e-01	4.035337e-01	5.540713e-01	-5.157229e-02	6.056436e-01	-3.286080e-01	-2.770357e-01	1.264980e-01	-5.872075e-22	1.264980e-01	-1.264980e-01
0.00141       	2.531427e-01	-1.506008e-01	4.037435e-01	5.543443e-01	-5.157002e-02	6.059144e-01	-3.287422e-01	-2.771722e-01	1.265713e-01	-5.864752e-22	1.265713e-01	-1.265713e-01
0.00142       	2.532542e-01	-1.506803e-01	4.039345e-01	5.546148e-01	-5.156947e-02	6.061843e-01	-3.288769e-01	-2.773074e-01	1.266271e-01	-5.855668e-22	1.266271e-01	-1.266271e-01
0.00143       	2.533316e-01	-1.507756e-01	4.041072e-01	5.548829e-01	-5.157216e-02	6.064550e-01	-3.290136e-01	-2.774414e-01	1.266658e-01	-5.807847e-22	1.266658e-01	-1.266658e-01
0.00144       	2.533968e-01	-1.508782e-01	4.042751e-01	5.551533e-01	-5.157019e-02	6.067235e-01	-3.291469e-01	-2.775767e-01	1.266984e-01	-5.705570e-22	1.266984e-01	-1.266984e-01
0.00145       	2.534733e-01	-1.509770e-01	4.044503e-01	5.554274e-01	-5.156525e-02	6.069926e-01	-3.292789e-01	-2.777137e-01	1.267366e-01	-5.604465e-22	1.267366e-01	-1.267366e-01
0.00146       	2.535635e-01	-1.510713e-01	4.046348e-01	5.557060e-01	-5.156002e-02	6.072661e-01	-3.294130e-01	-2.778530e-01	1.267817e-01	-5.534158e-22	1.267817e-01	-1.267817e-01
0.00147       	2.536722e-01	-1.511542e-01	4.048264e-01	5.559806e-01	-5.155653e-02	6.075371e-01	-3.295468e-01	-2.779903e-01	1.268361e-01	-5.470722e-22	1.268361e-01	-1.268361e-01
0.00148       	2.537943e-01	-1.512274e-01	4.050217e-01	5.562492e-01	-5.155680e-02	6.078060e-01	-3.296814e-01	-2.781246e-01	1.268971e-01	-5.404065e-22	1.268971e-01	-1.268971e-01
0.00149       	2.539155e-01	-1.513015e-01	4.052170e-01	5.565185e-01	-5.156235e-02	6.080809e-01	-3.298216e-01	-2.782593e-01	1.269577e-01	-5.323705e-22	1.269577e-01	-1.269577e-01
0.0015        	2.540534e-01	-1.513702e-01	4.054235e-01	5.567937e-01	-5.156593e-02	6.083596e-01	-3.299628e-01	-2.783968e-01	1.270267e-01	-5.235414e-22	1.270267e-01	-1.270267e-01
0.00151       	2.542222e-01	-1.514272e-01	4.056494e-01	5.570767e-01	-5.156850e-02	6.086452e-01	-3.301068e-01	-2.785383e-01	1.271111e-01	-5.175884e-22	1.271111e-01	-1.271111e-01
0.00152       	2.544140e-01	-1.514743e-01	4.058884e-01	5.573627e-01	-5.157497e-02	6.089376e-01	-3.302563e-01	-2.786813e-01	1.272070e-01	-5.113984e-22	1.272070e-01	-1.272070e-01
0.00153       	2.546303e-01	-1.515069e-01	4.061373e-01	5.576442e-01	-5.158483e-02	6.092291e-01	-3.304069e-01	-2.788221e-01	1.273152e-01	-5.092553e-22	1.273152e-01	-1.273152e-01
0.00154       	2.548687e-01	-1.515267e-01	4.063954e-01	5.579220e-01	-5.159357e-02	6.095156e-01	-3.305546e-01	-2.789610e-01	1.274343e-01	-5.087696e-22	1.274343e-01	-1.274343e-01
0.00155       	2.550911e-01	-1.515610e-01	4.066521e-01	5.582131e-01	-5.160331e-02	6.098164e-01	-3.307099e-01	-2.791066e-01	1.275455e-01	-5.063888e-22	1.275455e-01	-1.275455e-01
0.00156       	2.552626e-01	-1.516316e-01	4.068942e-01	5.585258e-01	-5.161230e-02	6.101381e-01	-3.308752e-01	-2.792629e-01	1.276313e-01	-5.017493e-22	1.276313e-01	-1.276313e-01
0.00157       	2.554312e-01	-1.517081e-01	4.071393e-01	5.588474e-01	-5.162116e-02	6.104686e-01	-3.310449e-01	-2.794237e-01	1.277156e-01	-4.975399e-22	1.277156e-01	-1.277156e-01
0.00158       	2.556146e-01	-1.517695e-01	4.073842e-01	5.591537e-01	-5.163223e-02	6.107859e-01	-3.312091e-01	-2.795768e-01	1.278073e-01	-4.966516e-22	1.278073e-01	-1.278073e-01
0.00159       	2.557964e-01	-1.518296e-01	4.076260e-01	5.594556e-01	-5.164877e-02	6.111043e-01	-3.313766e-01	-2.797278e-01	1.278982e-01	-4.928640e-22	1.278982e-01	-1.278982e-01
0.0016        	2.559572e-01	-1.518910e-01	4.078483e-01	5.597393e-01	-5.165895e-02	6.113982e-01	-3.315286e-01	-2.798696e-01	1.279786e-01	-4.872410e-22	1.279786e-01	-1.279786e-01
0.00161       	2.561059e-01	-1.519532e-01	4.080590e-01	5.600122e-01	-5.166311e-02	6.116753e-01	-3.316692e-01	-2.800061e-01	1.280529e-01	-4.776556e-22	1.280529e-01	-1.280529e-01
0.00162       	2.562447e-01	-1.520231e-01	4.082678e-01	5.602910e-01	-5.166676e-02	6.119577e-01	-3.318122e-01	-2.801455e-01	1.281223e-01	-4.687468e-22	1.281223e-01	-1.281223e-01
0.00163       	2.563652e-01	-1.520996e-01	4.084648e-01	5.605645e-01	-5.166372e-02	6.122282e-01	-3.319460e-01	-2.802822e-01	1.281826e-01	-4.608747e-22	1.281826e-01	-1.281826e-01
0.00164       	2.564955e-01	-1.521662e-01	4.086617e-01	5.608279e-01	-5.166774e-02	6.124956e-01	-3.320817e-01	-2.804140e-01	1.282477e-01	-4.529063e-22	1.282477e-01	-1.282477e-01
0.00165       	2.566410e-01	-1.522248e-01	4.088658e-01	5.610906e-01	-5.166977e-02	6.127604e-01	-3.322151e-01	-2.805453e-01	1.283205e-01	-4.426826e-22	1.283205e-01	-1.283205e-01